 Gaussian 16, Revision A.03,
 Gaussian 16:  ES64L-G16RevA.03 25-Dec-2016

 ----------------------------------------------------------------------
 # hf/6-31g(d) geom=connectivity iop(6/33=2,6/42=6,6/50=1) pop=mk scf=t
 ight test
 ----------------------------------------------------------------------

 -------
 Glycine
 -------
 Symbolic Z-matrix:
 Charge =  0 Multiplicity = 1

                         Standard orientation:
 ---------------------------------------------------------------------
 Center     Atomic      Atomic             Coordinates (Angstroms)
 Number     Number       Type             X           Y           Z
 ---------------------------------------------------------------------
      1          7           0       -0.233750   -1.786871    0.000000
      2          1           0       -1.162245   -1.389383    0.000000
      3          6           0        0.722131   -0.697884    0.000000
      4          1           0       -0.087583   -2.270255    0.874686
      5          1           0       -0.087583   -2.270255   -0.874686
      6          6           0        0.000000    0.641898    0.000000
      7          1           0        1.348254   -0.763340    0.889823
      8          1           0        1.348254   -0.763340   -0.889823
      9          8           0       -1.257862    0.678697    0.000000
     10          8           0        0.750909    1.858876    0.000000
 ---------------------------------------------------------------------

 SCF Done:  E(RHF) =  -282.708772802     A.U. after   15 cycles

 The electronic state is 1-A'.
 Alpha  occ. eigenvalues --  -20.49579 -20.43202 -15.75371 -11.32923 -11.32431
 Alpha  occ. eigenvalues --   -1.40023  -1.31590  -1.14512  -1.02329  -0.87466
 Alpha  occ. eigenvalues --   -0.84665  -0.73719  -0.68919  -0.63625  -0.57958
 Alpha  occ. eigenvalues --   -0.51187  -0.48091  -0.37824  -0.33324  -0.31741
 Alpha virt. eigenvalues --    0.10593   0.15529   0.21675   0.22536   0.26827
 Alpha virt. eigenvalues --    0.31926   0.32652   0.40003   0.52515   0.57229
 Alpha virt. eigenvalues --    0.69402   0.72592   0.78059   0.84090   0.87115

 Mulliken charges:
               1
     1  N   -0.819989
     2  H    0.473580
     3  C   -0.344681
     4  H    0.452433
     5  H    0.452433
     6  C    0.726668
     7  H    0.249043
     8  H    0.249043
     9  O   -0.674478
    10  O   -0.764052
 Sum of Mulliken charges =  -0.00000

 Dipole moment (field-independent basis, Debye):
    X=              0.7438    Y=            -13.4888    Z=              0.0000  Tot=             13.5092
 Quadrupole moment (field-independent basis, Debye-Ang):
   XX=            -33.8771   YY=            -28.3847   ZZ=            -25.8958
   XY=             -1.0634   XZ=             -0.0000   YZ=             -0.0000

 ESP charges:
               1
     1  N   -0.688129
     2  H    0.368950
     3  C    0.076420
     4  H    0.427553
     5  H    0.427553
     6  C    0.687772
     7  H    0.069423
     8  H    0.069423
     9  O   -0.662482
    10  O   -0.776483
 Sum of ESP charges =   0.00000

 Normal termination of Gaussian 16 at Tue Mar 27 08:14:46 2018.
